============================== echo of input deck ==============================
# echo input file to output
echo
title "Cisplatin"
memory total 4 gb
scratch_dir /tmp

# Charge of the system
charge 0

# XYZ coordinates in Angstrom units
# Automatic symmetry detection enabled (default tol 0.01). Disable with noautosym.
geometry units angstroms autosym 0.1
 Pt                 0.00000000   -0.00000000   -0.19134710
 Cl                 0.00000000    1.61220407    1.42085566
 Cl                 0.00000000   -1.61220407    1.42085566
 N                  0.00000000    1.40714181   -1.59849021
 H                  0.81649658    1.30951047   -2.16752575
 H                 -0.81649658    1.30951047   -2.16752575
 N                  0.00000000   -1.40714181   -1.59849021
 H                 -0.81649658   -1.30951047   -2.16752575
 H                  0.81649658   -1.30951047   -2.16752575
 H                  0.00000000    2.30951093   -1.16752621
 H                  0.00000000   -2.30951093   -1.16752621
end

dft
  # Exchange-correlation functional
  xc pbe0
  # Semidirect SCF. Cache integrals in memory, but do not use disk
  # 130 megawords is ~1000 megabytes for 64-bit machines
  semidirect memsize 130000000 filesize 0
  # For completely direct SCF without caching, use
  #direct

  # Spin multiplicity 2S + 1, where S = 0, 1/2, 1, 3/2, ...
  mult 1
  # For open-shell singlet calculation, add
  #odft

  # Reduce output during geometry optimization
  noprint "final vectors analysis"

  # Increase the number of SCF iterations
  iterations 100
end

# Basis set definitions
basis spherical
  * library def2-tzvp
end
ecp
  Pt library def2-ecp
end

# Options for the geometry optimizer
driver
  # Max 100 optimization steps
  maxiter 100
  # Print XYZ coordinates of each step
  xyz
end

# Optimize geometry
task dft optimize

# Run property calculation after the geometry optimization to
# create Molden file for plotting molecular orbitals
property
  moldenfile
  molden_norm none
end

task dft property

================================================================================

         Total DFT energy =    -1152.631242885102
@ Step       Energy      Delta E   Gmax     Grms     Xrms     Xmax   Walltime
@ ---- ---------------- -------- -------- -------- -------- -------- --------
@    0   -1152.63124289  0.0D+00  0.03147  0.00929  0.00000  0.00000     48.5
         Total DFT energy =    -1152.641409502141
         Total DFT energy =    -1152.642376986711
@    1   -1152.64237699 -1.1D-02  0.01046  0.00411  0.16549  0.37748    100.3
         Total DFT energy =    -1152.644369991682
         Total DFT energy =    -1152.644444298056
@    2   -1152.64444430 -2.1D-03  0.00223  0.00078  0.08149  0.19097    149.4
         Total DFT energy =    -1152.644712995201
         Total DFT energy =    -1152.644809053510
@    3   -1152.64480905 -3.6D-04  0.00133  0.00037  0.02304  0.05786    196.2
         Total DFT energy =    -1152.644823981853
         Total DFT energy =    -1152.644824524350
@    4   -1152.64482452 -1.5D-05  0.00031  0.00010  0.00528  0.01170    234.3
         Total DFT energy =    -1152.644827013957
         Total DFT energy =  -1152.644827013957
@    5   -1152.64482701 -2.5D-06  0.00011  0.00004  0.00158  0.00366    267.8
         Total DFT energy =    -1152.644827856383
         Total DFT energy =  -1152.644827856383
@    6   -1152.64482786 -8.4D-07  0.00003  0.00001  0.00117  0.00259    296.5
         Total DFT energy =    -1152.644827836533

     Multipole analysis of the density
     ---------------------------------

     L   x y z        total         alpha         beta         nuclear
     -   - - -        -----         -----         ----         -------
     0   0 0 0      0.000000    -36.000000    -36.000000     72.000000

     1   1 0 0     -0.000000     -0.000000     -0.000000      0.000000
     1   0 1 0      0.000000      0.000000      0.000000      0.000000
     1   0 0 1     -4.147887     -8.056867     -8.056867     11.965846

     2   2 0 0    -43.539231   -295.625867   -295.625867    547.712502
     2   1 1 0     -0.000000     -0.000000     -0.000000      0.000000
     2   1 0 1      0.000000      0.000000      0.000000      0.000000
     2   0 2 0    -46.480692    -28.104402    -28.104402      9.728112
     2   0 1 1      0.000000      0.000000      0.000000      0.000000

         Total DFT energy =  -1152.644827836533
@    7   -1152.64482784  2.0D-08  0.00001  0.00001  0.00017  0.00033    325.2
@    7   -1152.64482784  2.0D-08  0.00001  0.00001  0.00017  0.00033    325.2

 Output coordinates in angstroms (scale by  1.889725989 to convert to a.u.)

  No.       Tag          Charge          X              Y              Z
 ---- ---------------- ---------- -------------- -------------- --------------
    1 Pt                  78.0000     0.00000000     0.00000000    -0.24307227
    2 Cl                  17.0000    -1.68651666     0.00000000     1.28782427
    3 Cl                  17.0000     1.68651666     0.00000000     1.28782427
    4 N                    7.0000    -1.57529006     0.00000000    -1.59952690
    5 H                    1.0000    -1.62657884     0.82524986    -2.18714139
    6 H                    1.0000    -1.62657884    -0.82524986    -2.18714139
    7 N                    7.0000     1.57529006     0.00000000    -1.59952690
    8 H                    1.0000     1.62657884    -0.82524986    -2.18714139
    9 H                    1.0000     1.62657884     0.82524986    -2.18714139
   10 H                    1.0000    -2.38149730     0.00000000    -0.96836428
   11 H                    1.0000     2.38149730     0.00000000    -0.96836428

 Total times  cpu:      566.1s     wall:      325.3s
