============================== echo of input deck ==============================
# echo input file to output
echo
title "Cisplatin"
memory total 4 gb
scratch_dir /tmp

# Charge of the system
charge 0

# XYZ coordinates in Angstrom units
# Automatic symmetry detection enabled (default tol 0.01). Disable with noautosym.
geometry units angstroms autosym 0.1
 Pt                 0.00000000   -0.00000000   -0.19134710
 Cl                 0.00000000    1.61220407    1.42085566
 Cl                 0.00000000   -1.61220407    1.42085566
 N                  0.00000000    1.40714181   -1.59849021
 H                  0.81649658    1.30951047   -2.16752575
 H                 -0.81649658    1.30951047   -2.16752575
 N                  0.00000000   -1.40714181   -1.59849021
 H                 -0.81649658   -1.30951047   -2.16752575
 H                  0.81649658   -1.30951047   -2.16752575
 H                  0.00000000    2.30951093   -1.16752621
 H                  0.00000000   -2.30951093   -1.16752621
end

dft
  # Exchange-correlation functional
  xc pbe0
  # Semidirect SCF. Cache integrals in memory, but do not use disk
  # 130 megawords is ~1000 megabytes for 64-bit machines
  semidirect memsize 130000000 filesize 0
  # For completely direct SCF without caching, use
  #direct

  # Spin multiplicity 2S + 1, where S = 0, 1/2, 1, 3/2, ...
  mult 1
  # For open-shell singlet calculation, add
  #odft

  # Reduce output during geometry optimization
  noprint "final vectors analysis"

  # Increase the number of SCF iterations
  iterations 100
end

# Basis set definitions
basis spherical
  * library def2-tzvp
end
ecp
  Pt library def2-ecp
end

# Options for the geometry optimizer
driver
  # Max 100 optimization steps
  maxiter 100
  # Print XYZ coordinates of each step
  xyz
end

# Optimize geometry
task dft optimize

# Run property calculation after the geometry optimization to
# create Molden file for plotting molecular orbitals
property
  moldenfile
  molden_norm none
end

task dft property

================================================================================

         Total DFT energy =    -1152.631242885099
@ Step       Energy      Delta E   Gmax     Grms     Xrms     Xmax   Walltime
@ ---- ---------------- -------- -------- -------- -------- -------- --------
@    0   -1152.63124289  0.0D+00  0.03147  0.00929  0.00000  0.00000     39.5
         Total DFT energy =    -1152.641409509900
         Total DFT energy =    -1152.642376961475
@    1   -1152.64237696 -1.1D-02  0.01046  0.00411  0.16549  0.37748     84.3
         Total DFT energy =    -1152.644369834335
         Total DFT energy =    -1152.644444306070
@    2   -1152.64444431 -2.1D-03  0.00223  0.00078  0.08149  0.19096    128.0
         Total DFT energy =    -1152.644713021942
         Total DFT energy =    -1152.644808923859
@    3   -1152.64480892 -3.6D-04  0.00133  0.00037  0.02306  0.05788    170.2
         Total DFT energy =    -1152.644823998220
         Total DFT energy =    -1152.644824570158
@    4   -1152.64482457 -1.6D-05  0.00033  0.00010  0.00534  0.01182    206.1
         Total DFT energy =    -1152.644827112051
         Total DFT energy =  -1152.644827112051
@    5   -1152.64482711 -2.5D-06  0.00011  0.00004  0.00151  0.00350    237.4
         Total DFT energy =    -1152.644827792339
         Total DFT energy =  -1152.644827792339
@    6   -1152.64482779 -6.8D-07  0.00003  0.00001  0.00117  0.00260    265.4
         Total DFT energy =    -1152.644827656670

     Multipole analysis of the density
     ---------------------------------

     L   x y z        total         alpha         beta         nuclear
     -   - - -        -----         -----         ----         -------
     0   0 0 0     -0.000000    -36.000000    -36.000000     72.000000

     1   1 0 0     -0.000000     -0.000000     -0.000000      0.000000
     1   0 1 0      0.000000      0.000000      0.000000      0.000000
     1   0 0 1     -4.147887     -8.056919     -8.056919     11.965950

     2   2 0 0    -43.539324   -295.625659   -295.625659    547.711994
     2   1 1 0      0.000000      0.000000      0.000000      0.000000
     2   1 0 1     -0.000000     -0.000000     -0.000000     -0.000000
     2   0 2 0    -46.480708    -28.104413    -28.104413      9.728118
     2   0 1 1      0.000000      0.000000      0.000000      0.000000

         Total DFT energy =  -1152.644827656670
@    7   -1152.64482766  1.4D-07  0.00001  0.00001  0.00017  0.00032    293.0
@    7   -1152.64482766  1.4D-07  0.00001  0.00001  0.00017  0.00032    293.0

 Output coordinates in angstroms (scale by  1.889725989 to convert to a.u.)

  No.       Tag          Charge          X              Y              Z
 ---- ---------------- ---------- -------------- -------------- --------------
    1 Pt                  78.0000     0.00000000     0.00000000    -0.24307102
    2 Cl                  17.0000    -1.68651614     0.00000000     1.28782520
    3 Cl                  17.0000     1.68651614     0.00000000     1.28782520
    4 N                    7.0000    -1.57528885     0.00000000    -1.59952655
    5 H                    1.0000    -1.62657748     0.82525009    -2.18714215
    6 H                    1.0000    -1.62657748    -0.82525009    -2.18714215
    7 N                    7.0000     1.57528885     0.00000000    -1.59952655
    8 H                    1.0000     1.62657748    -0.82525009    -2.18714215
    9 H                    1.0000     1.62657748     0.82525009    -2.18714215
   10 H                    1.0000    -2.38149607     0.00000000    -0.96836466
   11 H                    1.0000     2.38149607     0.00000000    -0.96836466

 Total times  cpu:      353.1s     wall:      293.2s
