============================== echo of input deck ==============================
echo

start molecule

title "C9H7BN2F2 | Equilibrium Geometry | B3LYP/6-31G(d)"
charge 0

geometry units angstroms print xyz autosym
B      0.000001   -1.162957    0.000644
N      1.246339   -0.240964    0.000674
C      2.517484   -0.619309    0.001360
C      3.356788    0.504376    0.001062
C      2.540488    1.611831   -0.000033
C      1.205532    1.138202   -0.000109
C      0.000244    1.821050   -0.000443
C     -1.205163    1.138396    0.000211
N     -1.246186   -0.240759    0.001038
C     -2.517394   -0.618905    0.001979
C     -3.356516    0.504912    0.001818
C     -2.540037    1.612241    0.000543
F      0.000115   -1.949817    1.129932
F     -0.000242   -1.949247   -1.129045
H      2.781890   -1.659490    0.002099
H      4.428486    0.483157    0.001574
H      2.831001    2.644047   -0.000553
H      0.000331    2.900662   -0.001206
H     -2.781963   -1.659043    0.002802
H     -4.428217    0.483869    0.002536
H     -2.830387    2.644502    0.000062
end

basis
  * library 6-31G*
end

dft
  xc b3lyp
  mult 1
end

task dft optimize
================================================================================

         Total DFT energy =     -681.373261991994
@ Step       Energy      Delta E   Gmax     Grms     Xrms     Xmax   Walltime
@ ---- ---------------- -------- -------- -------- -------- -------- --------
@    0    -681.37326199  0.0D+00  0.01320  0.00409  0.00000  0.00000     58.6
         Total DFT energy =     -681.375674667359
         Total DFT energy =   -681.375674667359
@    1    -681.37567467 -2.4D-03  0.00269  0.00075  0.02647  0.07055    105.4
         Total DFT energy =     -681.375800731769
         Total DFT energy =     -681.375823789818
@    2    -681.37582379 -1.5D-04  0.00108  0.00027  0.00431  0.01406    170.6
         Total DFT energy =     -681.375839650348
         Total DFT energy =     -681.375840811213
@    3    -681.37584081 -1.7D-05  0.00014  0.00005  0.00296  0.00855    233.2
         Total DFT energy =     -681.375842174337

                       DFT Final Molecular Orbital Analysis
                       ------------------------------------

 Vector    1  Occ=2.000000D+00  E=-2.463218D+01  Symmetry=a1

 Vector  145  Occ=0.000000D+00  E= 1.567343D+00  Symmetry=b1

 Vector  146  Occ=0.000000D+00  E= 1.613315D+00  Symmetry=a1

 Vector  147  Occ=0.000000D+00  E= 1.615520D+00  Symmetry=b2

 Vector  148  Occ=0.000000D+00  E= 1.626825D+00  Symmetry=b1

 Vector  149  Occ=0.000000D+00  E= 1.646283D+00  Symmetry=a1

 Vector  150  Occ=0.000000D+00  E= 1.659702D+00  Symmetry=a2

 Vector  151  Occ=0.000000D+00  E= 1.726138D+00  Symmetry=a1

 Vector  152  Occ=0.000000D+00  E= 1.734290D+00  Symmetry=b1

 Vector  153  Occ=0.000000D+00  E= 1.767591D+00  Symmetry=b2

 Vector  154  Occ=0.000000D+00  E= 1.814842D+00  Symmetry=a1

 Vector  155  Occ=0.000000D+00  E= 1.837637D+00  Symmetry=b1

 Vector  156  Occ=0.000000D+00  E= 1.853565D+00  Symmetry=a1

 Vector  157  Occ=0.000000D+00  E= 1.870235D+00  Symmetry=b2

 Vector  158  Occ=0.000000D+00  E= 1.873289D+00  Symmetry=b1

 Vector  159  Occ=0.000000D+00  E= 1.905349D+00  Symmetry=b1

 Vector  160  Occ=0.000000D+00  E= 1.911182D+00  Symmetry=a2

 Vector  161  Occ=0.000000D+00  E= 1.912664D+00  Symmetry=b2

 Vector  162  Occ=0.000000D+00  E= 1.929308D+00  Symmetry=a1

 Vector  163  Occ=0.000000D+00  E= 1.964804D+00  Symmetry=a2

 Vector  164  Occ=0.000000D+00  E= 1.989965D+00  Symmetry=a1

 Vector  165  Occ=0.000000D+00  E= 2.003690D+00  Symmetry=b1

 Vector  166  Occ=0.000000D+00  E= 2.005116D+00  Symmetry=b2

 Vector  167  Occ=0.000000D+00  E= 2.030314D+00  Symmetry=a1

 Vector  168  Occ=0.000000D+00  E= 2.041577D+00  Symmetry=b1

 Vector  169  Occ=0.000000D+00  E= 2.074678D+00  Symmetry=a1

 Vector  170  Occ=0.000000D+00  E= 2.083143D+00  Symmetry=b1

 Vector  171  Occ=0.000000D+00  E= 2.132255D+00  Symmetry=b2

 Vector  172  Occ=0.000000D+00  E= 2.152105D+00  Symmetry=b1

 Vector  173  Occ=0.000000D+00  E= 2.153092D+00  Symmetry=a1

 Vector  174  Occ=0.000000D+00  E= 2.168292D+00  Symmetry=a2

 Vector  175  Occ=0.000000D+00  E= 2.191415D+00  Symmetry=b2

 Vector  176  Occ=0.000000D+00  E= 2.211757D+00  Symmetry=a1

 Vector  177  Occ=0.000000D+00  E= 2.213628D+00  Symmetry=a2

 Vector  178  Occ=0.000000D+00  E= 2.224764D+00  Symmetry=a1

 Vector  179  Occ=0.000000D+00  E= 2.236797D+00  Symmetry=b1

 Vector  180  Occ=0.000000D+00  E= 2.261162D+00  Symmetry=b2

 Vector  181  Occ=0.000000D+00  E= 2.276171D+00  Symmetry=a2

 Vector  182  Occ=0.000000D+00  E= 2.283876D+00  Symmetry=a1

 Vector  183  Occ=0.000000D+00  E= 2.284787D+00  Symmetry=b1

 Vector  184  Occ=0.000000D+00  E= 2.323137D+00  Symmetry=a1

 Vector  185  Occ=0.000000D+00  E= 2.368472D+00  Symmetry=b2

 Vector  186  Occ=0.000000D+00  E= 2.374626D+00  Symmetry=b1

 Vector  187  Occ=0.000000D+00  E= 2.437636D+00  Symmetry=b2

 Vector  188  Occ=0.000000D+00  E= 2.464358D+00  Symmetry=a2

 Vector  189  Occ=0.000000D+00  E= 2.497954D+00  Symmetry=b1

 Vector  190  Occ=0.000000D+00  E= 2.525031D+00  Symmetry=a2

 Vector  191  Occ=0.000000D+00  E= 2.527269D+00  Symmetry=a1

 Vector  192  Occ=0.000000D+00  E= 2.607637D+00  Symmetry=b2

 Vector  193  Occ=0.000000D+00  E= 2.627078D+00  Symmetry=a1

 Vector  194  Occ=0.000000D+00  E= 2.660947D+00  Symmetry=b1

 Vector  195  Occ=0.000000D+00  E= 2.683026D+00  Symmetry=b1

 Vector  196  Occ=0.000000D+00  E= 2.713075D+00  Symmetry=a1

 Vector  197  Occ=0.000000D+00  E= 2.745034D+00  Symmetry=a2

 Vector  198  Occ=0.000000D+00  E= 2.774634D+00  Symmetry=b1

 Vector  199  Occ=0.000000D+00  E= 2.790986D+00  Symmetry=b1

 Vector  200  Occ=0.000000D+00  E= 2.794217D+00  Symmetry=a1

 Vector  201  Occ=0.000000D+00  E= 2.804525D+00  Symmetry=a1

 Vector  202  Occ=0.000000D+00  E= 2.914484D+00  Symmetry=a1

 Vector  203  Occ=0.000000D+00  E= 2.963646D+00  Symmetry=b1

 Vector  204  Occ=0.000000D+00  E= 3.005697D+00  Symmetry=a1

 Vector  205  Occ=0.000000D+00  E= 3.023998D+00  Symmetry=b2

 Vector  206  Occ=0.000000D+00  E= 3.063273D+00  Symmetry=b1

 Vector  207  Occ=0.000000D+00  E= 3.090934D+00  Symmetry=a1

 Vector  208  Occ=0.000000D+00  E= 3.184562D+00  Symmetry=b1

 Vector  209  Occ=0.000000D+00  E= 3.203336D+00  Symmetry=a1

 Vector  210  Occ=0.000000D+00  E= 3.338259D+00  Symmetry=a1

 Vector  211  Occ=0.000000D+00  E= 3.750077D+00  Symmetry=a1

 Vector  212  Occ=0.000000D+00  E= 4.035599D+00  Symmetry=b1

 Vector  213  Occ=0.000000D+00  E= 4.068868D+00  Symmetry=a1

 Vector  214  Occ=0.000000D+00  E= 4.097339D+00  Symmetry=a1

 Vector  215  Occ=0.000000D+00  E= 4.125736D+00  Symmetry=b1

 Vector  216  Occ=0.000000D+00  E= 4.188076D+00  Symmetry=a1

 Vector  217  Occ=0.000000D+00  E= 4.200611D+00  Symmetry=b1

 Vector  218  Occ=0.000000D+00  E= 4.262079D+00  Symmetry=a1

 Vector  219  Occ=0.000000D+00  E= 4.384410D+00  Symmetry=b1

 Vector  220  Occ=0.000000D+00  E= 4.465510D+00  Symmetry=a1

 Vector  221  Occ=0.000000D+00  E= 4.479222D+00  Symmetry=b1

 Vector  222  Occ=0.000000D+00  E= 4.518145D+00  Symmetry=b2

 Vector  223  Occ=0.000000D+00  E= 4.624600D+00  Symmetry=a1

 Vector  224  Occ=0.000000D+00  E= 5.364494D+00  Symmetry=a1

     Multipole analysis of the density
     ---------------------------------

     L   x y z        total         alpha         beta         nuclear
     -   - - -        -----         -----         ----         -------
     0   0 0 0     -0.000000    -49.000000    -49.000000     98.000000

     1   1 0 0      0.000000      0.000000      0.000000     -0.000000
     1   0 1 0      0.000000      0.000000      0.000000      0.000000
     1   0 0 1      1.572000      1.149247      1.149247     -0.726493

     2   2 0 0    -45.124420   -744.588919   -744.588919   1444.053419
     2   1 1 0      0.000000      0.000000      0.000000      0.000000
     2   1 0 1     -0.000000     -0.000000     -0.000000      0.000000
     2   0 2 0    -62.433706    -73.227701    -73.227701     84.021696
     2   0 1 1      0.000000      0.000000      0.000000      0.000000

         Total DFT energy =   -681.375842174337
@    4    -681.37584217 -1.4D-06  0.00012  0.00002  0.00051  0.00147    274.1
@    4    -681.37584217 -1.4D-06  0.00012  0.00002  0.00051  0.00147    274.1

 Output coordinates in angstroms (scale by  1.889725989 to convert to a.u.)

  No.       Tag          Charge          X              Y              Z
 ---- ---------------- ---------- -------------- -------------- --------------
    1 B                    5.0000     0.00000000     0.00000000    -1.24453089
    2 N                    7.0000    -1.25187292     0.00000000    -0.28874004
    3 C                    6.0000    -2.53812154     0.00000000    -0.66330930
    4 C                    6.0000    -3.38250579     0.00000000     0.46948348
    5 C                    6.0000    -2.55416197     0.00000000     1.58279669
    6 C                    6.0000    -1.21695024     0.00000000     1.10558222
    7 C                    6.0000     0.00000000     0.00000000     1.78052364
    8 C                    6.0000     1.21695024     0.00000000     1.10558222
    9 N                    7.0000     1.25187292     0.00000000    -0.28874004
   10 C                    6.0000     2.53812154     0.00000000    -0.66330930
   11 C                    6.0000     3.38250579     0.00000000     0.46948348
   12 C                    6.0000     2.55416197     0.00000000     1.58279669
   13 F                    9.0000     0.00000000     1.14330113    -2.01839576
   14 F                    9.0000     0.00000000    -1.14330113    -2.01839576
   15 H                    1.0000    -2.80484011     0.00000000    -1.71192323
   16 H                    1.0000    -4.46354649     0.00000000     0.45059392
   17 H                    1.0000    -2.84582474     0.00000000     2.62502221
   18 H                    1.0000     0.00000000     0.00000000     2.86653028
   19 H                    1.0000     2.80484011     0.00000000    -1.71192323
   20 H                    1.0000     4.46354649     0.00000000     0.45059392
   21 H                    1.0000     2.84582474     0.00000000     2.62502221

 Total times  cpu:      280.5s     wall:      274.2s
