============================== echo of input deck ==============================
# echo input file to output
echo
start BODIPY_TDDFT
title "TDDFT/B3LYP/def2-TZVP Calculations of BODIPY in Toluene with Dispersion Correction"
memory total 16 gb
scratch_dir /tmp

# Charge of the system
charge 0

# XYZ coordinates in Angstrom units (default)
# Automatic symmetry detection enabled (default tol 0.01). Disable with noautosym.
geometry units angstroms autosym 0.1
B -0.00019437583225 -1.16316739355963 -0.00176466041749
N 1.24631725164681 -0.24138805849423 -0.00080783267345
C 2.51739477533339 -0.61997176132243 -0.00075140337776
C 3.35689094927452 0.50356665438456 -0.00082246625734
C 2.54079373059925 1.61117059666300 -0.00120562482099
C 1.20575157674696 1.13778760226353 -0.00108087155394
C 0.00058911568866 1.82086825837058 -0.00124861634612
C -1.20493021235489 1.13842232496486 -0.00080649652061
N -1.24621945325567 -0.24073087404503 -0.00010064286439
C -2.51749640395899 -0.61864315229661 0.00071302235781
C -3.35639906343006 0.50533841214423 0.00057932193959
C -2.53972124748802 1.61251062336190 -0.00048409441898
F -0.00007497888277 -1.95161629895753 1.12633462988970
F -0.00072588381522 -1.94780131847676 -1.13265938071381
H 2.78162898425872 -1.66019437319538 -0.00056421851775
H 4.42858745196628 0.48215630454488 -0.00072457564702
H 2.83148118049264 2.64333386128906 -0.00135193565684
H 0.00087029015745 2.90047753858275 -0.00170385373193
H -2.78227557332534 -1.65872624312978 0.00143771204265
H -4.42810657767131 0.48449521810039 0.00115450061887
H -2.82986760835016 2.64482665500762 -0.00091044163019
end

#basis spherical
# * library def2-svp
#end

basis "ao basis" spherical
 * library def2-tzvp
end
basis "cd basis" # reduces cost from N 4 --> N3
 * library "Weigend Coulomb Fitting"
end

ecp
  Pt library def2-ecp
end

dft
  xc b3lyp
  direct
  iterations 500
  grid xfine
  # Grimme's D3-dispersion correction with Becke-Johnson damping (D3(BJ))
  disp vdw 4
  convergence fast
end

cosmo
  solvent toluene
end

# Options for the geometry optimizer
driver
  # Max 100 optimization steps
  maxiter 100
  # Don't use restart information from a previous run
  clear
end
task dft optimize

# Run property calculation after the geometry optimization to
# create Molden file for plotting molecular orbitals
property
  moldenfile
  molden_norm none
end
task dft property

# Calculate numerical frequencies
# With COSMO, only numerical frequencies are possible
#task dft freq numerical

tddft
 nroots 5
end
task tddft energy
================================================================================

         Total DFT energy =     -681.700715566185
@ Step       Energy      Delta E   Gmax     Grms     Xrms     Xmax   Walltime
@ ---- ---------------- -------- -------- -------- -------- -------- --------
@    0    -681.70071557  0.0D+00  0.01336  0.00342  0.00000  0.00000   5368.5
         Total DFT energy =     -681.702121106702
         Total DFT energy =     -681.702141353672
@    1    -681.70214135 -1.4D-03  0.00213  0.00044  0.01709  0.04249  13853.7
         Total DFT energy =     -681.702188883960
         Total DFT energy =   -681.702188883960
@    2    -681.70218888 -4.8D-05  0.00052  0.00011  0.00313  0.01299  19166.1
         Total DFT energy =     -681.702190079564
         Total DFT energy =   -681.702190079564
@    3    -681.70219008 -1.2D-06  0.00014  0.00003  0.00060  0.00188  24093.8
         Total DFT energy =     -681.702191186462
         Total DFT energy =   -681.702191186462
@    4    -681.70219119 -1.1D-06  0.00006  0.00001  0.00019  0.00055  29020.3
@    4    -681.70219119 -1.1D-06  0.00006  0.00001  0.00019  0.00055  29020.3

 Output coordinates in angstroms (scale by  1.889725989 to convert to a.u.)

  No.       Tag          Charge          X              Y              Z
 ---- ---------------- ---------- -------------- -------------- --------------
    1 B                    5.0000     0.00000000     0.00000000    -1.22147439
    2 N                    7.0000    -1.24882937     0.00000000    -0.28613881
    3 C                    6.0000    -2.53375265     0.00000000    -0.66448450
    4 C                    6.0000    -3.37129300     0.00000000     0.46710420
    5 C                    6.0000    -2.54365435     0.00000000     1.57939514
    6 C                    6.0000    -1.21039993     0.00000000     1.10620209
    7 C                    6.0000     0.00000000     0.00000000     1.78076303
    8 C                    6.0000     1.21039993     0.00000000     1.10620209
    9 N                    7.0000     1.24882937     0.00000000    -0.28613881
   10 C                    6.0000     2.53375265     0.00000000    -0.66448450
   11 C                    6.0000     3.37129300     0.00000000     0.46710420
   12 C                    6.0000     2.54365435     0.00000000     1.57939514
   13 F                    9.0000     0.00000000     1.14126471    -2.02087253
   14 F                    9.0000     0.00000000    -1.14126471    -2.02087253
   15 H                    1.0000    -2.80657417     0.00000000    -1.70773225
   16 H                    1.0000    -4.44834882     0.00000000     0.45021010
   17 H                    1.0000    -2.83469289     0.00000000     2.61745499
   18 H                    1.0000     0.00000000     0.00000000     2.86317097
   19 H                    1.0000     2.80657417     0.00000000    -1.70773225
   20 H                    1.0000     4.44834882     0.00000000     0.45021010
   21 H                    1.0000     2.83469289     0.00000000     2.61745499

         Total DFT energy =     -681.702189380699

                       DFT Final Molecular Orbital Analysis
                       ------------------------------------

 Vector    1  Occ=2.000000D+00  E=-2.463791D+01  Symmetry=a1

 Vector  397  Occ=0.000000D+00  E= 4.500721D+00  Symmetry=b1

 Vector  398  Occ=0.000000D+00  E= 4.533213D+00  Symmetry=a1

 Vector  399  Occ=0.000000D+00  E= 4.629712D+00  Symmetry=b1

 Vector  400  Occ=0.000000D+00  E= 4.641341D+00  Symmetry=a1

 Vector  401  Occ=0.000000D+00  E= 4.704071D+00  Symmetry=a1

 Vector  402  Occ=0.000000D+00  E= 4.735479D+00  Symmetry=b1

 Vector  403  Occ=0.000000D+00  E= 4.772757D+00  Symmetry=a1

 Vector  404  Occ=0.000000D+00  E= 4.786973D+00  Symmetry=b1

 Vector  405  Occ=0.000000D+00  E= 4.791989D+00  Symmetry=a2

 Vector  406  Occ=0.000000D+00  E= 4.800460D+00  Symmetry=b2

 Vector  407  Occ=0.000000D+00  E= 4.813210D+00  Symmetry=b1

 Vector  408  Occ=0.000000D+00  E= 4.825330D+00  Symmetry=a1

 Vector  409  Occ=0.000000D+00  E= 4.890513D+00  Symmetry=a2

 Vector  410  Occ=0.000000D+00  E= 4.908201D+00  Symmetry=a1

 Vector  411  Occ=0.000000D+00  E= 4.938120D+00  Symmetry=a2

 Vector  412  Occ=0.000000D+00  E= 4.957518D+00  Symmetry=b1

 Vector  413  Occ=0.000000D+00  E= 4.964635D+00  Symmetry=b2

 Vector  414  Occ=0.000000D+00  E= 4.980538D+00  Symmetry=b1

 Vector  415  Occ=0.000000D+00  E= 5.021375D+00  Symmetry=b2

 Vector  416  Occ=0.000000D+00  E= 5.059394D+00  Symmetry=b1

 Vector  417  Occ=0.000000D+00  E= 5.082140D+00  Symmetry=a1

 Vector  418  Occ=0.000000D+00  E= 5.142150D+00  Symmetry=b2

 Vector  419  Occ=0.000000D+00  E= 5.163180D+00  Symmetry=a2

 Vector  420  Occ=0.000000D+00  E= 5.166139D+00  Symmetry=a1

 Vector  421  Occ=0.000000D+00  E= 5.247063D+00  Symmetry=b2

 Vector  422  Occ=0.000000D+00  E= 5.267586D+00  Symmetry=a2

 Vector  423  Occ=0.000000D+00  E= 5.288819D+00  Symmetry=a1

 Vector  424  Occ=0.000000D+00  E= 5.340355D+00  Symmetry=b1

 Vector  425  Occ=0.000000D+00  E= 5.359021D+00  Symmetry=b1

 Vector  426  Occ=0.000000D+00  E= 5.380936D+00  Symmetry=a1

 Vector  427  Occ=0.000000D+00  E= 5.429427D+00  Symmetry=a1

 Vector  428  Occ=0.000000D+00  E= 5.431059D+00  Symmetry=b1

 Vector  429  Occ=0.000000D+00  E= 5.492939D+00  Symmetry=a1

 Vector  430  Occ=0.000000D+00  E= 5.546549D+00  Symmetry=b1

 Vector  431  Occ=0.000000D+00  E= 5.747305D+00  Symmetry=b1

 Vector  432  Occ=0.000000D+00  E= 5.748925D+00  Symmetry=a1

 Vector  433  Occ=0.000000D+00  E= 5.836757D+00  Symmetry=b1

 Vector  434  Occ=0.000000D+00  E= 5.855407D+00  Symmetry=a1

 Vector  435  Occ=0.000000D+00  E= 5.934247D+00  Symmetry=a1

 Vector  436  Occ=0.000000D+00  E= 5.934870D+00  Symmetry=b1

 Vector  437  Occ=0.000000D+00  E= 5.998175D+00  Symmetry=a1

 Vector  438  Occ=0.000000D+00  E= 6.143695D+00  Symmetry=b1

 Vector  439  Occ=0.000000D+00  E= 6.890047D+00  Symmetry=a2

 Vector  440  Occ=0.000000D+00  E= 6.891262D+00  Symmetry=b2

 Vector  441  Occ=0.000000D+00  E= 6.917929D+00  Symmetry=a1

 Vector  442  Occ=0.000000D+00  E= 6.920190D+00  Symmetry=b1

 Vector  443  Occ=0.000000D+00  E= 6.953731D+00  Symmetry=b2

 Vector  444  Occ=0.000000D+00  E= 6.956320D+00  Symmetry=a2

 Vector  445  Occ=0.000000D+00  E= 7.017316D+00  Symmetry=a1

 Vector  446  Occ=0.000000D+00  E= 7.084232D+00  Symmetry=a1

 Vector  447  Occ=0.000000D+00  E= 7.133814D+00  Symmetry=b1

 Vector  448  Occ=0.000000D+00  E= 7.188961D+00  Symmetry=b2

 Vector  449  Occ=0.000000D+00  E= 7.214977D+00  Symmetry=b1

 Vector  450  Occ=0.000000D+00  E= 7.236937D+00  Symmetry=a2

 Vector  451  Occ=0.000000D+00  E= 7.322024D+00  Symmetry=b2

 Vector  452  Occ=0.000000D+00  E= 7.334211D+00  Symmetry=a1

 Vector  453  Occ=0.000000D+00  E= 8.402476D+00  Symmetry=a2

 Vector  454  Occ=0.000000D+00  E= 8.422181D+00  Symmetry=b2

 Vector  455  Occ=0.000000D+00  E= 8.521016D+00  Symmetry=a1

 Vector  456  Occ=0.000000D+00  E= 8.545721D+00  Symmetry=b1

 Vector  457  Occ=0.000000D+00  E= 8.811612D+00  Symmetry=b2

 Vector  458  Occ=0.000000D+00  E= 8.836957D+00  Symmetry=b1

 Vector  459  Occ=0.000000D+00  E= 8.867213D+00  Symmetry=a2

 Vector  460  Occ=0.000000D+00  E= 8.890371D+00  Symmetry=b2

 Vector  461  Occ=0.000000D+00  E= 8.904917D+00  Symmetry=a1

 Vector  462  Occ=0.000000D+00  E= 8.980024D+00  Symmetry=a1

 Vector  463  Occ=0.000000D+00  E= 1.575602D+01  Symmetry=a1

 Vector  464  Occ=0.000000D+00  E= 2.234196D+01  Symmetry=a1

 Vector  465  Occ=0.000000D+00  E= 2.236347D+01  Symmetry=b1

 Vector  466  Occ=0.000000D+00  E= 2.261496D+01  Symmetry=a1

 Vector  467  Occ=0.000000D+00  E= 2.263095D+01  Symmetry=b1

 Vector  468  Occ=0.000000D+00  E= 2.272389D+01  Symmetry=a1

 Vector  469  Occ=0.000000D+00  E= 2.274342D+01  Symmetry=b1

 Vector  470  Occ=0.000000D+00  E= 2.284549D+01  Symmetry=a1

 Vector  471  Occ=0.000000D+00  E= 2.314611D+01  Symmetry=b1

 Vector  472  Occ=0.000000D+00  E= 2.332222D+01  Symmetry=a1

 Vector  473  Occ=0.000000D+00  E= 3.285416D+01  Symmetry=b1

 Vector  474  Occ=0.000000D+00  E= 3.287885D+01  Symmetry=a1

 Vector  475  Occ=0.000000D+00  E= 5.699893D+01  Symmetry=b2

 Vector  476  Occ=0.000000D+00  E= 5.724322D+01  Symmetry=a1

     Multipole analysis of the density
     ---------------------------------

     L   x y z        total         alpha         beta         nuclear
     -   - - -        -----         -----         ----         -------
     0   0 0 0     -0.000000    -49.000000    -49.000000     98.000000

     1   1 0 0      0.000000      0.000000      0.000000     -0.000000
     1   0 1 0     -0.000000     -0.000000     -0.000000      0.000000
     1   0 0 1      2.053760      1.369679      1.369679     -0.685598

     2   2 0 0    -44.369188   -739.760540   -739.760540   1435.151892
     2   1 1 0      0.000000      0.000000      0.000000      0.000000
     2   1 0 1      0.000000      0.000000      0.000000     -0.000000
     2   0 2 0    -64.788197    -74.255422    -74.255422     83.722648
     2   0 1 1      0.000000      0.000000      0.000000      0.000000

  Root   1 singlet b1             0.114375375 a.u.                3.1123 eV
     Dipole Oscillator Strength                    0.3755430925
  Root   2 singlet b1             0.134720945 a.u.                3.6659 eV
     Dipole Oscillator Strength                    0.2073146049
  Root   3 singlet a1             0.139852367 a.u.                3.8056 eV
     Dipole Oscillator Strength                    0.0274979166
  Root   4 singlet a1             0.191751100 a.u.                5.2178 eV
     Dipole Oscillator Strength                    0.0322225936
  Root   5 singlet a2             0.202500439 a.u.                5.5103 eV
     Dipole Oscillator Strength                    0.0000000000
  Root   1 triplet b1             0.058710022 a.u.                1.5976 eV
  Root   2 triplet b1             0.101310670 a.u.                2.7568 eV
  Root   3 triplet a1             0.109384300 a.u.                2.9765 eV
  Root   4 triplet a1             0.131856782 a.u.                3.5880 eV
  Root   5 triplet a1             0.177336958 a.u.                4.8256 eV
 Total times  cpu:    98592.1s     wall:    73985.6s
