============================== echo of input deck ==============================
echo
start tddftgrad_water_opt
title "TDDFT/B3LYP/def2-TZVP/COSMO geometry optimization of Water"
memory total 16 gb

# Charge of the system
charge 0

# XYZ coordinates in Angstrom units (default)
# Automatic symmetry detection enabled (default tol 0.01). Disable with noautosym.
geometry units angstroms autosym 0.1
O     0.00000000     0.00000000     0.12982363
H     0.75933475     0.00000000    -0.46621158
H    -0.75933475     0.00000000    -0.46621158
end

#basis spherical
#* library "def2-svp"
#end
basis "ao basis" spherical
 * library def2-tzvp
end
basis "cd basis" # reduces cost from N 4 --> N3
 * library "Weigend Coulomb Fitting"
end
#ecp spherical # Reduces the cost of calculation for heavy elements
# * library Stuttgart_RSC_1997_ECP
#end

driver
  clear
  maxiter 100
end

dft
  xc b3lyp
  iterations 500
  grid xfine
  disp vdw 4
end

cosmo
  solvent toluene
end

# Optimize geometry
task dft optimize

## Run property calculation after the geometry optimization to
## create Molden file for plotting molecular orbitals
property
  moldenfile
  molden_norm none
end
task dft property

# Calculate numerical frequencies
# With COSMO, only numerical frequencies are possible
#task dft freq numerical
# For analytical hessians
# Done with in-core algorithm (6.8) -> small systems only!
# task dft freq

# Final property analysis with MO vector printout
#dft
#  print "final vectors analysis"
#end
#property
#  mulliken
#  dipole
#end
#task dft property
#
## Calcul du gap HOMO-LUMO
#set dft:print "HOMO-LUMO Gap"
#task dft energy

#tddft
#  nroots 5
#  notriplet
#  algorithm 1
#  target 1
#  targetsym a
#  civecs
#  grad
#    root 1
#  end
#
#end
#task tddft gradient

## Calcul des forces d'oscillateur et autres propriétés
tddft
  nroots 5
  notriplet
end
#task tddft optimize
task tddft energy
================================================================================

         Total DFT energy =      -76.470263143013
@ Step       Energy      Delta E   Gmax     Grms     Xrms     Xmax   Walltime
@ ---- ---------------- -------- -------- -------- -------- -------- --------
@    0     -76.47026314  0.0D+00  0.00166  0.00115  0.00000  0.00000      5.0
         Total DFT energy =      -76.470297790825
         Total DFT energy =      -76.470298696250
@    1     -76.47029870 -3.6D-05  0.00006  0.00005  0.00652  0.01129     11.7
         Total DFT energy =      -76.470298701420

 Vector    7  Occ=0.000000D+00  E= 1.007801D-01  Symmetry=a"

 Vector    8  Occ=0.000000D+00  E= 3.532884D-01  Symmetry=a"

 Vector    9  Occ=0.000000D+00  E= 3.999024D-01  Symmetry=a'

 Vector   10  Occ=0.000000D+00  E= 4.156189D-01  Symmetry=a'

 Vector   11  Occ=0.000000D+00  E= 4.312985D-01  Symmetry=a'

 Vector   12  Occ=0.000000D+00  E= 5.681040D-01  Symmetry=a"

 Vector   13  Occ=0.000000D+00  E= 5.940455D-01  Symmetry=a'

 Vector   14  Occ=0.000000D+00  E= 1.163208D+00  Symmetry=a'

 Vector   15  Occ=0.000000D+00  E= 1.186158D+00  Symmetry=a"

 Vector   16  Occ=0.000000D+00  E= 1.290823D+00  Symmetry=a'

 Vector   17  Occ=0.000000D+00  E= 1.522416D+00  Symmetry=a"

 Vector   18  Occ=0.000000D+00  E= 1.628775D+00  Symmetry=a'

 Vector   19  Occ=0.000000D+00  E= 1.751030D+00  Symmetry=a"

 Vector   20  Occ=0.000000D+00  E= 1.979152D+00  Symmetry=a'

 Vector   21  Occ=0.000000D+00  E= 2.048697D+00  Symmetry=a'

 Vector   22  Occ=0.000000D+00  E= 2.097943D+00  Symmetry=a"

 Vector   23  Occ=0.000000D+00  E= 2.281138D+00  Symmetry=a"

 Vector   24  Occ=0.000000D+00  E= 2.372666D+00  Symmetry=a'

 Vector   25  Occ=0.000000D+00  E= 2.568195D+00  Symmetry=a"

 Vector   26  Occ=0.000000D+00  E= 2.599530D+00  Symmetry=a'

 Vector   27  Occ=0.000000D+00  E= 2.599694D+00  Symmetry=a'

 Vector   28  Occ=0.000000D+00  E= 2.762669D+00  Symmetry=a'

 Vector   29  Occ=0.000000D+00  E= 3.627974D+00  Symmetry=a'

 Vector   30  Occ=0.000000D+00  E= 3.916409D+00  Symmetry=a"

 Vector   31  Occ=0.000000D+00  E= 5.091226D+00  Symmetry=a'

 Vector   32  Occ=0.000000D+00  E= 5.190631D+00  Symmetry=a'

 Vector   33  Occ=0.000000D+00  E= 5.368101D+00  Symmetry=a'

 Vector   34  Occ=0.000000D+00  E= 5.392272D+00  Symmetry=a"

 Vector   35  Occ=0.000000D+00  E= 5.456667D+00  Symmetry=a"

 Vector   36  Occ=0.000000D+00  E= 6.010152D+00  Symmetry=a"

 Vector   37  Occ=0.000000D+00  E= 6.197791D+00  Symmetry=a'

 Vector   38  Occ=0.000000D+00  E= 6.292530D+00  Symmetry=a'

 Vector   39  Occ=0.000000D+00  E= 6.356937D+00  Symmetry=a"

 Vector   40  Occ=0.000000D+00  E= 6.406375D+00  Symmetry=a'

 Vector   41  Occ=0.000000D+00  E= 6.889328D+00  Symmetry=a'

 Vector   42  Occ=0.000000D+00  E= 6.976319D+00  Symmetry=a"

 Vector   43  Occ=0.000000D+00  E= 4.321929D+01  Symmetry=a'

         Total DFT energy =    -76.470298701420
@    2     -76.47029870 -5.2D-09  0.00003  0.00002  0.00007  0.00011     14.8
@    2     -76.47029870 -5.2D-09  0.00003  0.00002  0.00007  0.00011     14.8

 Output coordinates in angstroms (scale by  1.889725989 to convert to a.u.)

  No.       Tag          Charge          X              Y              Z
 ---- ---------------- ---------- -------------- -------------- --------------
    1 O                    8.0000     0.11318713     0.00000000     0.00000000
    2 H                    1.0000    -0.47381821     0.00000000     0.76449729
    3 H                    1.0000    -0.47381821     0.00000000    -0.76449729

         Total DFT energy =      -76.470298702767

                       DFT Final Molecular Orbital Analysis
                       ------------------------------------

 Vector    1  Occ=2.000000D+00  E=-1.912898D+01  Symmetry=a'

 Vector    2  Occ=2.000000D+00  E=-1.014506D+00  Symmetry=a'

 Vector    3  Occ=2.000000D+00  E=-5.338303D-01  Symmetry=a"

 Vector    4  Occ=2.000000D+00  E=-3.956490D-01  Symmetry=a'

 Vector    5  Occ=2.000000D+00  E=-3.209604D-01  Symmetry=a'

 Vector    6  Occ=0.000000D+00  E= 2.269357D-02  Symmetry=a'

 Vector    7  Occ=0.000000D+00  E= 1.007801D-01  Symmetry=a"

 Vector    8  Occ=0.000000D+00  E= 3.532884D-01  Symmetry=a"

 Vector    9  Occ=0.000000D+00  E= 3.999024D-01  Symmetry=a'

 Vector   10  Occ=0.000000D+00  E= 4.156189D-01  Symmetry=a'

 Vector   11  Occ=0.000000D+00  E= 4.312985D-01  Symmetry=a'

 Vector   12  Occ=0.000000D+00  E= 5.681040D-01  Symmetry=a"

 Vector   13  Occ=0.000000D+00  E= 5.940455D-01  Symmetry=a'

 Vector   14  Occ=0.000000D+00  E= 1.163208D+00  Symmetry=a'

 Vector   15  Occ=0.000000D+00  E= 1.186158D+00  Symmetry=a"

 Vector   16  Occ=0.000000D+00  E= 1.290823D+00  Symmetry=a'

 Vector   17  Occ=0.000000D+00  E= 1.522416D+00  Symmetry=a"

 Vector   18  Occ=0.000000D+00  E= 1.628775D+00  Symmetry=a'

 Vector   19  Occ=0.000000D+00  E= 1.751030D+00  Symmetry=a"

 Vector   20  Occ=0.000000D+00  E= 1.979152D+00  Symmetry=a'

 Vector   21  Occ=0.000000D+00  E= 2.048697D+00  Symmetry=a'

 Vector   22  Occ=0.000000D+00  E= 2.097943D+00  Symmetry=a"

 Vector   23  Occ=0.000000D+00  E= 2.281138D+00  Symmetry=a"

 Vector   24  Occ=0.000000D+00  E= 2.372666D+00  Symmetry=a'

 Vector   25  Occ=0.000000D+00  E= 2.568195D+00  Symmetry=a"

 Vector   26  Occ=0.000000D+00  E= 2.599530D+00  Symmetry=a'

 Vector   27  Occ=0.000000D+00  E= 2.599694D+00  Symmetry=a'

 Vector   28  Occ=0.000000D+00  E= 2.762669D+00  Symmetry=a'

 Vector   29  Occ=0.000000D+00  E= 3.627974D+00  Symmetry=a'

 Vector   30  Occ=0.000000D+00  E= 3.916409D+00  Symmetry=a"

 Vector   31  Occ=0.000000D+00  E= 5.091226D+00  Symmetry=a'

 Vector   32  Occ=0.000000D+00  E= 5.190631D+00  Symmetry=a'

 Vector   33  Occ=0.000000D+00  E= 5.368101D+00  Symmetry=a'

 Vector   34  Occ=0.000000D+00  E= 5.392272D+00  Symmetry=a"

 Vector   35  Occ=0.000000D+00  E= 5.456667D+00  Symmetry=a"

 Vector   36  Occ=0.000000D+00  E= 6.010152D+00  Symmetry=a"

 Vector   37  Occ=0.000000D+00  E= 6.197791D+00  Symmetry=a'

 Vector   38  Occ=0.000000D+00  E= 6.292530D+00  Symmetry=a'

 Vector   39  Occ=0.000000D+00  E= 6.356937D+00  Symmetry=a"

 Vector   40  Occ=0.000000D+00  E= 6.406375D+00  Symmetry=a'

 Vector   41  Occ=0.000000D+00  E= 6.889328D+00  Symmetry=a'

 Vector   42  Occ=0.000000D+00  E= 6.976319D+00  Symmetry=a"

 Vector   43  Occ=0.000000D+00  E= 4.321930D+01  Symmetry=a'

     Multipole analysis of the density
     ---------------------------------

     L   x y z        total         alpha         beta         nuclear
     -   - - -        -----         -----         ----         -------
     0   0 0 0     -0.000000     -5.000000     -5.000000     10.000000

     1   1 0 0     -0.891666     -0.406017     -0.406017     -0.079632
     1   0 1 0     -0.000000     -0.000000     -0.000000      0.000000
     1   0 0 1      0.000000      0.000000      0.000000      0.000000

     2   2 0 0     -4.679542     -3.324489     -3.324489      1.969435
     2   1 1 0     -0.000000     -0.000000     -0.000000      0.000000
     2   1 0 1      0.000000      0.000000      0.000000      0.000000
     2   0 2 0     -5.669452     -2.834726     -2.834726      0.000000
     2   0 1 1      0.000000      0.000000      0.000000      0.000000

  Root   1 singlet a'             0.288395156 a.u.                7.8476 eV
     Dipole Oscillator Strength                    0.0365725385
  Root   2 singlet a"             0.359677578 a.u.                9.7873 eV
     Dipole Oscillator Strength                    0.0000000000
  Root   3 singlet a'             0.369204629 a.u.               10.0466 eV
     Dipole Oscillator Strength                    0.1016544816
  Root   4 singlet a"             0.443887046 a.u.               12.0788 eV
     Dipole Oscillator Strength                    0.0492883349
  Root   5 singlet a"             0.507552289 a.u.               13.8112 eV
     Dipole Oscillator Strength                    0.2321844755
 Total times  cpu:       94.5s     wall:       46.7s
