   * xtb version 6.6.1 (8d0f1dd) compiled by 'conda@1efc2f54142f' on 2023-08-01
          program call               : xtb crest_best.xyz --gfn2 --opt vtight --parallel 1

   ID    Z sym.   atoms
    1    5 B      1
    2    7 N      2, 9
    3    6 C      3-8, 10-12
    4    9 F      13, 14
    5    1 H      15-21

          :  Hamiltonian                  GFN2-xTB          :
 * total energy  :   -39.5227466 Eh     change       -0.4195186E-09 Eh
 * total energy  :   -39.5296313 Eh     change       -0.6884666E-02 Eh
 * total energy  :   -39.5305262 Eh     change       -0.8949574E-03 Eh
 * total energy  :   -39.5306038 Eh     change       -0.7757586E-04 Eh
 * total energy  :   -39.5306329 Eh     change       -0.2914359E-04 Eh
 * total energy  :   -39.5306349 Eh     change       -0.1980671E-05 Eh
 * total energy  :   -39.5306352 Eh     change       -0.2635099E-06 Eh
 * total energy  :   -39.5306352 Eh     change       -0.2298319E-07 Eh
   *** GEOMETRY OPTIMIZATION CONVERGED AFTER 8 ITERATIONS ***

 final structure:
================
21
 xtb: 6.6.1 (8d0f1dd)
B            0.00007975508872       -1.16310502857105        0.00011392014826
N           -1.24634784932987       -0.24123251300253        0.00128615781143
C           -2.51745967005939       -0.61970487279053        0.00296250982207
C           -3.35685920968723        0.50390176336459        0.00239547875539
C           -2.54066849425943        1.61143647955715        0.00007973273770
C           -1.20567032220829        1.13794236643601       -0.00046985608563
C           -0.00044976131305        1.82091339029405       -0.00170782132836
C            1.20501544736379        1.13836906426641       -0.00082916650845
N            1.24617912013703       -0.24078962051812        0.00086826721739
C            2.51742646619044       -0.61881477940707        0.00222214552765
C            3.35642785180546        0.50508715783226        0.00152420153732
C            2.53984536399578        1.61233521168005       -0.00060279922192
F            0.00001622115820       -1.94827553230326       -1.13039407798640
F            0.00042111707188       -1.95106281636612        1.12858902218768
H           -2.78176442933928       -1.65990824717435        0.00455900218193
H           -4.42855739728364        0.48258364208073        0.00357228930831
H           -2.83128108720848        2.64362177798487       -0.00093909545385
H           -0.00064151206260        2.90052473666582       -0.00315837778478
H            2.78209736471591       -1.65892482266993        0.00371847737431
H            4.42813366020374        0.48414893460965        0.00246073866936
H            2.83009422642030        2.64462254063138       -0.00166748780943

          :  Hamiltonian                  GFN2-xTB          :
         :: total energy             -39.530635211716 Eh    ::
         :: gradient norm              0.000069715303 Eh/a0 ::
         :: HOMO-LUMO gap              1.790730839381 eV    ::
         :: SCC energy               -40.051303302718 Eh    ::
         :: -> dispersion             -0.021117095446 Eh    ::
         :: repulsion energy           0.520629697694 Eh    ::

    * Orbital Energies and Occupations

         #    Occupation            Energy/Eh            Energy/eV
      -------------------------------------------------------------
         1        2.0000           -0.7666379             -20.8613
       ...           ...                  ...                  ...
        23        2.0000           -0.4915223             -13.3750
        24        2.0000           -0.4822021             -13.1214
        25        2.0000           -0.4771566             -12.9841
        26        2.0000           -0.4754813             -12.9385
        27        2.0000           -0.4686634             -12.7530
        28        2.0000           -0.4596351             -12.5073
        29        2.0000           -0.4548570             -12.3773
        30        2.0000           -0.4459835             -12.1358
        31        2.0000           -0.4437249             -12.0744
        32        2.0000           -0.4336689             -11.8007
        33        2.0000           -0.4263870             -11.6026
        34        2.0000           -0.4261752             -11.5968
        35        2.0000           -0.3983611             -10.8400 (HOMO)
        36                         -0.3325529              -9.0492 (LUMO)
        37                         -0.2169172              -5.9026
        38                         -0.1937092              -5.2711
        39                         -0.1792355              -4.8772
        40                         -0.1358546              -3.6968
        41                          0.0411951               1.1210
        42                          0.0442553               1.2042
        43                          0.0825862               2.2473
        44                          0.0957857               2.6065
        45                          0.1149783               3.1287
        46                          0.1327637               3.6127
       ...                                ...                  ...
        63                          0.6889987              18.7486
      -------------------------------------------------------------
                  HL-Gap            0.0658081 Eh            1.7907 eV

     #   Z          covCN         q      C6AA      α(0)
     1   5 B        3.111     0.522    14.272     6.301
     2   7 N        2.748    -0.092    23.041     7.129
     3   6 C        3.076     0.044    26.927     8.508
     4   6 C        3.035    -0.051    29.232     8.868
     5   6 C        3.036    -0.043    29.021     8.836
     6   6 C        3.132     0.049    26.703     8.459
     7   6 C        2.900    -0.018    28.451     8.746
     8   6 C        3.132     0.049    26.703     8.459
     9   7 N        2.748    -0.092    23.041     7.129
    10   6 C        3.076     0.044    26.927     8.508
    11   6 C        3.035    -0.051    29.232     8.868
    12   6 C        3.036    -0.043    29.021     8.836
    13   9 F        0.722    -0.369    13.147     4.282
    14   9 F        0.722    -0.369    13.147     4.282
    15   1 H        0.926     0.072     2.058     2.244
    16   1 H        0.926     0.051     2.313     2.378
    17   1 H        0.926     0.050     2.316     2.380
    18   1 H        0.926     0.073     2.050     2.239
    19   1 H        0.926     0.072     2.058     2.244
    20   1 H        0.926     0.051     2.313     2.378
    21   1 H        0.926     0.050     2.316     2.380

Wiberg/Mayer (AO) data.
largest (>0.10) Wiberg bond orders for each atom

     #   Z sym  total        # sym  WBO       # sym  WBO       # sym  WBO
 ---------------------------------------------------------------------------
     1   5 B    3.388 --    14 F    0.874    13 F    0.874     9 N    0.794
                             2 N    0.794
     2   7 N    3.615 --     3 C    1.416     6 C    1.150     1 B    0.794
     3   6 C    3.930 --     2 N    1.416     4 C    1.329    15 H    0.966
     4   6 C    3.961 --     5 C    1.535     3 C    1.329    16 H    0.973
     5   6 C    3.954 --     4 C    1.535     6 C    1.248    17 H    0.972
     6   6 C    3.964 --     7 C    1.372     5 C    1.248     2 N    1.150
     7   6 C    3.986 --     6 C    1.372     8 C    1.372    18 H    0.962
     8   6 C    3.964 --     7 C    1.372    12 C    1.248     9 N    1.150
     9   7 N    3.615 --    10 C    1.416     8 C    1.150     1 B    0.794
    10   6 C    3.930 --     9 N    1.416    11 C    1.329    19 H    0.966
    11   6 C    3.961 --    12 C    1.535    10 C    1.329    20 H    0.973
    12   6 C    3.954 --    11 C    1.535     8 C    1.248    21 H    0.972
    13   9 F    0.973 --     1 B    0.874
    14   9 F    0.973 --     1 B    0.874
    15   1 H    0.994 --     3 C    0.966
    16   1 H    0.997 --     4 C    0.973
    17   1 H    0.997 --     5 C    0.972
    18   1 H    0.994 --     7 C    0.962
    19   1 H    0.994 --    10 C    0.966
    20   1 H    0.997 --    11 C    0.973
    21   1 H    0.997 --    12 C    0.972
 ---------------------------------------------------------------------------

molecular dipole:
                 x           y           z       tot (Debye)
 q only:       -0.000       1.887       0.002
   full:       -0.000       1.976       0.002       5.023

           -------------------------------------------------
          | TOTAL ENERGY              -39.530635211716 Eh   |
          | GRADIENT NORM               0.000069715303 Eh/α |
          | HOMO-LUMO GAP               1.790730839381 eV   |
           -------------------------------------------------

 * finished run on 2024/02/27 at 08:26:36.264
