   * xtb version 6.6.1 (8d0f1dd) compiled by 'conda@1efc2f54142f' on 2023-08-01
          program call               : xtb --spinpol --tblite BODIPY_rdkit.xyz --ohess --alpb toluene --parallel 4

   ID    Z sym.   atoms
    1    5 B      1
    2    7 N      2, 9
    3    6 C      3-8, 10-12
    4    9 F      13, 14
    5    1 H      15-21
repulsion energy          5.1858463748532E-01 Eh
dispersion energy         3.3081597820355E-05 Eh
interaction energy        0.0000000000000E+00 Eh
number of electrons       7.0000000000000E+01 e
integral cutoff           1.9311100799991E+01 bohr

 * total energy  :   -39.5013382 Eh     change       -0.3214801E-08 Eh
 * total energy  :   -39.5220168 Eh     change       -0.2067860E-01 Eh
 * total energy  :   -39.5299476 Eh     change       -0.7930837E-02 Eh
 * total energy  :   -39.5304646 Eh     change       -0.5169478E-03 Eh
 * total energy  :   -39.5306154 Eh     change       -0.1507934E-03 Eh
 * total energy  :   -39.5306294 Eh     change       -0.1400584E-04 Eh
 * total energy  :   -39.5306326 Eh     change       -0.3165065E-05 Eh
   *** GEOMETRY OPTIMIZATION CONVERGED AFTER 7 ITERATIONS ***

 final structure:
================
21
 xtb: 6.6.1 (8d0f1dd)
B           -0.03659149469124       -1.51444458763210       -0.01335725024619
N           -1.26049485698872       -0.56197938478054       -0.00004265146129
C           -2.54055450539556       -0.90947414168968        0.00367018745836
C           -3.35212095262342        0.23433402515296        0.00524501909267
C           -2.50880007412350        1.32137132618386        0.00164150277235
C           -1.18578407412023        0.81558672504091       -0.00150231242173
C            0.03573506684040        1.46889456547583       -0.00235711601411
C            1.22386218243934        0.75705213889848        0.00018986814404
N            1.23163361662964       -0.62261535512241        0.00183399264110
C            2.49323804436591       -1.03176112734894        0.00667894313369
C            3.35941074501044        0.07134090549374        0.00902895353225
C            2.57034271853568        1.19808424271974        0.00454350538626
F           -0.05433311568712       -2.28106588182643       -1.15653455734654
F           -0.05735805102660       -2.32016151754182        1.10205013856777
H           -2.83003611728069       -1.94278827051189        0.00539095335516
H           -4.42400002473944        0.23945755320651        0.00854863737263
H           -2.77381120252272        2.36045238213188        0.00170430421334
H            0.06184240721178        2.54814071513536       -0.00353948158109
H            2.73173506605595       -2.07794896374174        0.00873740206216
H            4.43025313815136        0.02457495163710        0.01324025499144
H            2.88583248395874        2.22294969911918        0.00482970634775

 projected vibrational frequencies (cm⁻¹)
eigval :       -0.00    -0.00    -0.00     0.00     0.00     0.00
eigval :       39.57   107.70   120.82   172.27   233.09   251.13
eigval :      300.42   322.80   349.35   385.98   417.20   446.82
eigval :      557.74   561.30   570.45   639.45   679.33   686.25
eigval :      772.80   795.41   796.82   813.48   833.12   844.53
eigval :      845.81   847.28   861.94   873.06   890.19   952.58
eigval :     1022.89  1031.91  1033.92  1072.17  1078.18  1123.54
eigval :     1138.39  1140.46  1164.72  1227.39  1329.40  1352.26
eigval :     1353.41  1368.66  1377.17  1420.16  1499.95  1500.74
eigval :     1543.43  1593.09  3098.32  3161.26  3161.78  3165.24
eigval :     3165.78  3178.42  3178.68

   temp. (K)  partition function   enthalpy   heat capacity  entropy
                                   cal/mol     cal/K/mol   cal/K/mol   J/K/mol
 298.15  VIB   687.                 5011.454     36.490     28.674
         ROT  0.683E+06              888.752      2.981     29.678
         INT  0.469E+09             5900.206     39.471     58.351
         TR   0.257E+28             1481.254      4.968     41.643
         TOT                        7381.4602    44.4388    99.9945   418.3768

       T/K    H(0)-H(T)+PV         H(T)/Eh          T*S/Eh         G(T)/Eh
   ------------------------------------------------------------------------
    298.15    0.117631E-01    0.158591E+00    0.475106E-01    0.111080E+00
   ------------------------------------------------------------------------

         :::::::::::::::::::::::::::::::::::::::::::::::::::::
         ::                  THERMODYNAMIC                  ::
         :::::::::::::::::::::::::::::::::::::::::::::::::::::
         :: total free energy         -39.419552076297 Eh   ::
         ::.................................................::
         :: total energy              -39.530632565785 Eh   ::
         :: zero point energy           0.146827973983 Eh   ::
         :: G(RRHO) w/o ZPVE           -0.035747484495 Eh   ::
         :: G(RRHO) contrib.            0.111080489488 Eh   ::
         :::::::::::::::::::::::::::::::::::::::::::::::::::::

           -------------------------------------------------
          | TOTAL ENERGY              -39.530632565785 Eh   |
          | TOTAL ENTHALPY            -39.372041486231 Eh   |
          | TOTAL FREE ENERGY         -39.419552076297 Eh   |
          | GRADIENT NORM               0.000908205075 Eh/α |
           -------------------------------------------------

 * finished run on 2024/08/18 at 14:55:03.011
