   * xtb version 6.6.1 (8d0f1dd) compiled by 'conda@1efc2f54142f' on 2023-08-01
          program call               : xtb crest_best.xyz --gfn 2 --opt vtight --parallel 4 --alpb Toluene

   ID    Z sym.   atoms
    1    5 B      1
    2    7 N      2, 9
    3    6 C      3-8, 10-12
    4    9 F      13, 14
    5    1 H      15-21

      * Solvation model:               ALPB
        Solvent                        Toluene
        Solvent mass                       7.8110E+01 g/mol
          :  Hamiltonian                  GFN2-xTB          :
 * total energy  :   -39.5490583 Eh     change       -0.4723759E-09 Eh
 * total energy  :   -39.5491122 Eh     change       -0.5397361E-04 Eh
 * total energy  :   -39.5491490 Eh     change       -0.3675614E-04 Eh
 * total energy  :   -39.5491505 Eh     change       -0.1507291E-05 Eh
 * total energy  :   -39.5491506 Eh     change       -0.1321173E-06 Eh
 * total energy  :   -39.5491506 Eh     change       -0.2384422E-07 Eh
   *** GEOMETRY OPTIMIZATION CONVERGED AFTER 6 ITERATIONS ***

 final structure:
================
21
 xtb: 6.6.1 (8d0f1dd)
B           -0.00001023556420       -1.13810333871438        0.00013278434619
N            1.24567547444451       -0.22836183469576        0.00109536718586
C            2.52004172728225       -0.60582482446873        0.00269124662008
C            3.35738263890909        0.51784519098742        0.00230849497198
C            2.54013682633628        1.62578129620504        0.00021126227798
C            1.20546007621318        1.15284719107412       -0.00043398281561
C            0.00001339071465        1.83628185973815       -0.00145166454744
C           -1.20544582251231        1.15286521767454       -0.00047948449845
N           -1.24568255302803       -0.22834232425476        0.00108277018968
C           -2.52005574920044       -0.60578678310265        0.00265446324558
C           -3.35737792187287        0.51789631272878        0.00222576614798
C           -2.54011414147072        1.62582003616370        0.00011182418182
F           -0.00001956512989       -1.94849490320049        1.12750533772913
F           -0.00001283957943       -1.94581895919862       -1.12925512090453
H            2.78559591950708       -1.64623393171237        0.00409724550469
H            4.42919009282070        0.49575491296631        0.00347599365330
H            2.83040033149013        2.65809489015446       -0.00061589933310
H            0.00002140696682        2.91612561615402       -0.00270114083646
H           -2.78562612197303       -1.64619129217347        0.00409148178309
H           -4.42918552445639        0.49582285553071        0.00336846641132
H           -2.83036169829738        2.65813808014398       -0.00075686481310

          :  Hamiltonian                  GFN2-xTB          :
         :: total energy             -39.549150648837 Eh    ::
         :: gradient norm              0.000049713542 Eh/a0 ::
         :: HOMO-LUMO gap              1.791472301644 eV    ::
         :: SCC energy               -40.066788008564 Eh    ::
         :: -> dispersion             -0.021064156708 Eh    ::
         :: -> Gsolv                  -0.019624485955 Eh    ::
         :: repulsion energy           0.517598965802 Eh    ::

    * Orbital Energies and Occupations

         #    Occupation            Energy/Eh            Energy/eV
      -------------------------------------------------------------
         1        2.0000           -0.7777437             -21.1635
       ...           ...                  ...                  ...
        23        2.0000           -0.4932568             -13.4222
        24        2.0000           -0.4822797             -13.1235
        25        2.0000           -0.4778466             -13.0029
        26        2.0000           -0.4772279             -12.9860
        27        2.0000           -0.4679607             -12.7339
        28        2.0000           -0.4679344             -12.7331
        29        2.0000           -0.4604248             -12.5288
        30        2.0000           -0.4591206             -12.4933
        31        2.0000           -0.4545040             -12.3677
        32        2.0000           -0.4422835             -12.0351
        33        2.0000           -0.4272117             -11.6250
        34        2.0000           -0.4266091             -11.6086
        35        2.0000           -0.3989515             -10.8560 (HOMO)
        36                         -0.3331161              -9.0646 (LUMO)
        37                         -0.2186140              -5.9488
        38                         -0.1948486              -5.3021
        39                         -0.1788629              -4.8671
        40                         -0.1360921              -3.7033
        41                          0.0385524               1.0491
        42                          0.0428670               1.1665
        43                          0.0815637               2.2195
        44                          0.0955936               2.6012
        45                          0.1146592               3.1200
        46                          0.1322016               3.5974
       ...                                ...                  ...
        63                          0.6895228              18.7629
      -------------------------------------------------------------
                  HL-Gap            0.0658354 Eh            1.7915 eV

     #   Z          covCN         q      C6AA      α(0)
     1   5 B        3.112     0.523    14.263     6.299
     2   7 N        2.748    -0.095    23.100     7.138
     3   6 C        3.073     0.044    26.940     8.510
     4   6 C        3.033    -0.049    29.178     8.860
     5   6 C        3.035    -0.039    28.928     8.822
     6   6 C        3.129     0.048    26.722     8.464
     7   6 C        2.900    -0.015    28.381     8.735
     8   6 C        3.129     0.048    26.722     8.464
     9   7 N        2.748    -0.095    23.100     7.138
    10   6 C        3.073     0.044    26.940     8.510
    11   6 C        3.033    -0.049    29.178     8.860
    12   6 C        3.035    -0.039    28.928     8.822
    13   9 F        0.721    -0.394    13.452     4.331
    14   9 F        0.721    -0.394    13.452     4.331
    15   1 H        0.926     0.066     2.128     2.281
    16   1 H        0.926     0.058     2.227     2.334
    17   1 H        0.926     0.063     2.170     2.303
    18   1 H        0.926     0.088     1.902     2.156
    19   1 H        0.926     0.066     2.128     2.281
    20   1 H        0.926     0.058     2.227     2.334
    21   1 H        0.926     0.063     2.170     2.303

Wiberg/Mayer (AO) data.
largest (>0.10) Wiberg bond orders for each atom

     #   Z sym  total        # sym  WBO       # sym  WBO       # sym  WBO
 ---------------------------------------------------------------------------
     1   5 B    3.381 --    13 F    0.848    14 F    0.848     9 N    0.816
                             2 N    0.816
     2   7 N    3.618 --     3 C    1.404     6 C    1.145     1 B    0.816
     3   6 C    3.930 --     2 N    1.404     4 C    1.338    15 H    0.967
     4   6 C    3.962 --     5 C    1.528     3 C    1.338    16 H    0.972
     5   6 C    3.952 --     4 C    1.528     6 C    1.252    17 H    0.971
     6   6 C    3.962 --     7 C    1.372     5 C    1.252     2 N    1.145
     7   6 C    3.983 --     6 C    1.372     8 C    1.372    18 H    0.960
     8   6 C    3.962 --     7 C    1.372    12 C    1.252     9 N    1.145
     9   7 N    3.618 --    10 C    1.404     8 C    1.145     1 B    0.816
    10   6 C    3.930 --     9 N    1.404    11 C    1.338    19 H    0.967
    11   6 C    3.962 --    12 C    1.528    10 C    1.338    20 H    0.972
    12   6 C    3.952 --    11 C    1.528     8 C    1.252    21 H    0.971
    13   9 F    0.942 --     1 B    0.848
    14   9 F    0.942 --     1 B    0.848
    15   1 H    0.995 --     3 C    0.967
    16   1 H    0.996 --     4 C    0.972
    17   1 H    0.996 --     5 C    0.971
    18   1 H    0.991 --     7 C    0.960
    19   1 H    0.995 --    10 C    0.967
    20   1 H    0.996 --    11 C    0.972
    21   1 H    0.996 --    12 C    0.971
 ---------------------------------------------------------------------------

molecular dipole:
                 x           y           z       tot (Debye)
 q only:        0.000       2.387       0.002
   full:        0.000       2.335       0.002       5.936

           -------------------------------------------------
          | TOTAL ENERGY              -39.549150648837 Eh   |
          | GRADIENT NORM               0.000049713542 Eh/α |
          | HOMO-LUMO GAP               1.791472301644 eV   |
           -------------------------------------------------

 * finished run on 2024/08/18 at 15:26:03.924
