   * xtb version 6.5.1 (fef0646) compiled by 'conda@b96dff2e9fd6' on 2023-01-04
          program call               : xtb crest_best.xyz --gfn 2 --opt vtight --parallel 2

   ID    Z sym.   atoms
    1    5 B      1
    2    7 N      2, 9
    3    6 C      3-8, 10-12
    4    9 F      13, 14
    5    1 H      15-21

          :  Hamiltonian                  GFN2-xTB          :
 * total energy  :   -39.5227630 Eh     change       -0.4078231E-09 Eh
 * total energy  :   -39.5296317 Eh     change       -0.6868678E-02 Eh
 * total energy  :   -39.5305254 Eh     change       -0.8936607E-03 Eh
 * total energy  :   -39.5306034 Eh     change       -0.7805540E-04 Eh
 * total energy  :   -39.5306328 Eh     change       -0.2939934E-04 Eh
 * total energy  :   -39.5306349 Eh     change       -0.2067905E-05 Eh
 * total energy  :   -39.5306352 Eh     change       -0.3055388E-06 Eh
 * total energy  :   -39.5306352 Eh     change       -0.3120203E-07 Eh
   *** GEOMETRY OPTIMIZATION CONVERGED AFTER 8 ITERATIONS ***

 final structure:
================
21
 xtb: 6.5.1 (fef0646)
B           -0.00019437583225       -1.16316739355963       -0.00176466041749
N            1.24631725164681       -0.24138805849423       -0.00080783267345
C            2.51739477533339       -0.61997176132243       -0.00075140337776
C            3.35689094927452        0.50356665438456       -0.00082246625734
C            2.54079373059925        1.61117059666300       -0.00120562482099
C            1.20575157674696        1.13778760226353       -0.00108087155394
C            0.00058911568866        1.82086825837058       -0.00124861634612
C           -1.20493021235489        1.13842232496486       -0.00080649652061
N           -1.24621945325567       -0.24073087404503       -0.00010064286439
C           -2.51749640395899       -0.61864315229661        0.00071302235781
C           -3.35639906343006        0.50533841214423        0.00057932193959
C           -2.53972124748802        1.61251062336190       -0.00048409441898
F           -0.00007497888277       -1.95161629895753        1.12633462988970
F           -0.00072588381522       -1.94780131847676       -1.13265938071381
H            2.78162898425872       -1.66019437319538       -0.00056421851775
H            4.42858745196628        0.48215630454488       -0.00072457564702
H            2.83148118049264        2.64333386128906       -0.00135193565684
H            0.00087029015745        2.90047753858275       -0.00170385373193
H           -2.78227557332534       -1.65872624312978        0.00143771204265
H           -4.42810657767131        0.48449521810039        0.00115450061887
H           -2.82986760835016        2.64482665500762       -0.00091044163019

          :  Hamiltonian                  GFN2-xTB          :
         :: total energy             -39.530635226623 Eh    ::
         :: gradient norm              0.000079848091 Eh/a0 ::
         :: HOMO-LUMO gap              1.790730325559 eV    ::
         :: SCC energy               -40.051304659716 Eh    ::
         :: -> dispersion             -0.021117091825 Eh    ::
         :: repulsion energy           0.520631039865 Eh    ::

    * Orbital Energies and Occupations

         #    Occupation            Energy/Eh            Energy/eV
      -------------------------------------------------------------
         1        2.0000           -0.7666410             -20.8614
       ...           ...                  ...                  ...
        23        2.0000           -0.4915245             -13.3751
        24        2.0000           -0.4822017             -13.1214
        25        2.0000           -0.4771563             -12.9841
        26        2.0000           -0.4754816             -12.9385
        27        2.0000           -0.4686618             -12.7529
        28        2.0000           -0.4596344             -12.5073
        29        2.0000           -0.4548601             -12.3774
        30        2.0000           -0.4459873             -12.1359
        31        2.0000           -0.4437262             -12.0744
        32        2.0000           -0.4336693             -11.8007
        33        2.0000           -0.4263868             -11.6026
        34        2.0000           -0.4261749             -11.5968
        35        2.0000           -0.3983596             -10.8399 (HOMO)
        36                         -0.3325514              -9.0492 (LUMO)
        37                         -0.2169161              -5.9026
        38                         -0.1937080              -5.2711
        39                         -0.1792347              -4.8772
        40                         -0.1358539              -3.6968
        41                          0.0411944               1.1210
        42                          0.0442528               1.2042
        43                          0.0825871               2.2473
        44                          0.0957858               2.6065
        45                          0.1149788               3.1287
        46                          0.1327646               3.6127
       ...                                ...                  ...
        63                          0.6889979              18.7486
      -------------------------------------------------------------
                  HL-Gap            0.0658081 Eh            1.7907 eV

     #   Z          covCN         q      C6AA      α(0)
     1   5 B        3.111     0.522    14.272     6.301
     2   7 N        2.748    -0.092    23.041     7.129
     3   6 C        3.076     0.044    26.927     8.508
     4   6 C        3.035    -0.051    29.232     8.868
     5   6 C        3.036    -0.043    29.021     8.836
     6   6 C        3.132     0.049    26.703     8.459
     7   6 C        2.900    -0.018    28.451     8.746
     8   6 C        3.132     0.049    26.703     8.459
     9   7 N        2.748    -0.092    23.041     7.129
    10   6 C        3.076     0.044    26.927     8.508
    11   6 C        3.035    -0.051    29.232     8.868
    12   6 C        3.036    -0.043    29.021     8.836
    13   9 F        0.722    -0.369    13.147     4.282
    14   9 F        0.722    -0.369    13.147     4.282
    15   1 H        0.926     0.072     2.058     2.244
    16   1 H        0.926     0.051     2.313     2.378
    17   1 H        0.926     0.050     2.316     2.380
    18   1 H        0.926     0.073     2.050     2.239
    19   1 H        0.926     0.072     2.058     2.244
    20   1 H        0.926     0.051     2.313     2.378
    21   1 H        0.926     0.050     2.316     2.380

Wiberg/Mayer (AO) data.
largest (>0.10) Wiberg bond orders for each atom

     #   Z sym  total        # sym  WBO       # sym  WBO       # sym  WBO
 ---------------------------------------------------------------------------
     1   5 B    3.388 --    13 F    0.874    14 F    0.874     2 N    0.794
                             9 N    0.794
     2   7 N    3.615 --     3 C    1.416     6 C    1.150     1 B    0.794
     3   6 C    3.930 --     2 N    1.416     4 C    1.329    15 H    0.966
     4   6 C    3.961 --     5 C    1.535     3 C    1.329    16 H    0.973
     5   6 C    3.954 --     4 C    1.535     6 C    1.248    17 H    0.972
     6   6 C    3.964 --     7 C    1.372     5 C    1.248     2 N    1.150
     7   6 C    3.986 --     8 C    1.372     6 C    1.372    18 H    0.962
     8   6 C    3.964 --     7 C    1.372    12 C    1.248     9 N    1.150
     9   7 N    3.615 --    10 C    1.416     8 C    1.150     1 B    0.794
    10   6 C    3.930 --     9 N    1.416    11 C    1.329    19 H    0.966
    11   6 C    3.961 --    12 C    1.535    10 C    1.329    20 H    0.973
    12   6 C    3.954 --    11 C    1.535     8 C    1.248    21 H    0.972
    13   9 F    0.974 --     1 B    0.874
    14   9 F    0.973 --     1 B    0.874
    15   1 H    0.994 --     3 C    0.966
    16   1 H    0.997 --     4 C    0.973
    17   1 H    0.997 --     5 C    0.972
    18   1 H    0.994 --     7 C    0.962
    19   1 H    0.994 --    10 C    0.966
    20   1 H    0.997 --    11 C    0.973
    21   1 H    0.997 --    12 C    0.972
 ---------------------------------------------------------------------------

molecular dipole:
                 x           y           z       tot (Debye)
 q only:        0.000       1.887       0.003
   full:        0.001       1.976       0.003       5.023

           -------------------------------------------------
          | TOTAL ENERGY              -39.530635226623 Eh   |
          | GRADIENT NORM               0.000079848091 Eh/α |
          | HOMO-LUMO GAP               1.790730325559 eV   |
           -------------------------------------------------

 * finished run on 2024/06/26 at 21:13:50.876
