   * xtb version 6.6.1 (8d0f1dd) compiled by 'conda@1efc2f54142f' on 2023-08-01
          program call               : xtb crest_best.xyz --gfn2 --opt vtight --parallel 1

   ID    Z sym.   atoms
    1    5 B      1
    2    7 N      2, 9
    3    6 C      3-8, 10-12
    4    9 F      13, 14
    5    1 H      15-21

          :  Hamiltonian                  GFN2-xTB          :
 * total energy  :   -39.5227644 Eh     change       -0.5334542E-09 Eh
 * total energy  :   -39.5296362 Eh     change       -0.6871857E-02 Eh
 * total energy  :   -39.5305273 Eh     change       -0.8910857E-03 Eh
 * total energy  :   -39.5306041 Eh     change       -0.7678788E-04 Eh
 * total energy  :   -39.5306330 Eh     change       -0.2890561E-04 Eh
 * total energy  :   -39.5306350 Eh     change       -0.1952904E-05 Eh
 * total energy  :   -39.5306352 Eh     change       -0.2597339E-06 Eh
 * total energy  :   -39.5306352 Eh     change       -0.1948555E-07 Eh
   *** GEOMETRY OPTIMIZATION CONVERGED AFTER 8 ITERATIONS ***

 final structure:
================
21
 xtb: 6.6.1 (8d0f1dd)
B            0.00000086896976       -1.16295660390517        0.00064448615290
N            1.24633884232971       -0.24096437845371        0.00067359497941
C            2.51748357580100       -0.61930944745787        0.00136037830955
C            3.35678778024359        0.50437572429341        0.00106157204315
C            2.54048835357920        1.61183147108712       -0.00003269911357
C            1.20553232792694        1.13820189776338       -0.00010855653924
C            0.00024435052162        1.82105025066916       -0.00044308179129
C           -1.20516279548865        1.13839629439915        0.00021057536142
N           -1.24618593305426       -0.24075870955669        0.00103760388482
C           -2.51739448092093       -0.61890486421887        0.00197942308228
C           -3.35651572817969        0.50491210370160        0.00181812643464
C           -2.54003654885069        1.61224097380912        0.00054302188708
F            0.00011494038371       -1.94981705279545        1.12993188635984
F           -0.00024163558212       -1.94924682891811       -1.12904465878341
H            2.78188967343832       -1.65948960141612        0.00209940408140
H            4.42848632285531        0.48315733078625        0.00157360309238
H            2.83100060311519        2.64404694287020       -0.00055328778990
H            0.00033111561667        2.90066208577195       -0.00120622030479
H           -2.78196291985651       -1.65904274558833        0.00280241712646
H           -4.42821724981527        0.48386882942008        0.00253621223524
H           -2.83038740373292        2.64450167733892        0.00006223449162

          :  Hamiltonian                  GFN2-xTB          :
         :: total energy             -39.530635246305 Eh    ::
         :: gradient norm              0.000071044093 Eh/a0 ::
         :: HOMO-LUMO gap              1.790733269528 eV    ::
         :: SCC energy               -40.051302936195 Eh    ::
         :: -> dispersion             -0.021117077910 Eh    ::
         :: repulsion energy           0.520629297971 Eh    ::

    * Orbital Energies and Occupations

         #    Occupation            Energy/Eh            Energy/eV
      -------------------------------------------------------------
         1        2.0000           -0.7666379             -20.8613
       ...           ...                  ...                  ...
        23        2.0000           -0.4915222             -13.3750
        24        2.0000           -0.4822024             -13.1214
        25        2.0000           -0.4771560             -12.9841
        26        2.0000           -0.4754805             -12.9385
        27        2.0000           -0.4686641             -12.7530
        28        2.0000           -0.4596348             -12.5073
        29        2.0000           -0.4548568             -12.3773
        30        2.0000           -0.4459830             -12.1358
        31        2.0000           -0.4437255             -12.0744
        32        2.0000           -0.4336697             -11.8008
        33        2.0000           -0.4263878             -11.6026
        34        2.0000           -0.4261759             -11.5968
        35        2.0000           -0.3983607             -10.8399 (HOMO)
        36                         -0.3325525              -9.0492 (LUMO)
        37                         -0.2169164              -5.9026
        38                         -0.1937100              -5.2711
        39                         -0.1792369              -4.8773
        40                         -0.1358548              -3.6968
        41                          0.0411994               1.1211
        42                          0.0442585               1.2043
        43                          0.0825868               2.2473
        44                          0.0957826               2.6064
        45                          0.1149774               3.1287
        46                          0.1327631               3.6127
       ...                                ...                  ...
        63                          0.6889944              18.7485
      -------------------------------------------------------------
                  HL-Gap            0.0658082 Eh            1.7907 eV

     #   Z          covCN         q      C6AA      α(0)
     1   5 B        3.111     0.522    14.272     6.301
     2   7 N        2.748    -0.092    23.041     7.129
     3   6 C        3.076     0.044    26.927     8.508
     4   6 C        3.035    -0.051    29.232     8.868
     5   6 C        3.036    -0.043    29.021     8.836
     6   6 C        3.133     0.049    26.703     8.459
     7   6 C        2.900    -0.018    28.451     8.746
     8   6 C        3.133     0.049    26.703     8.459
     9   7 N        2.748    -0.092    23.041     7.129
    10   6 C        3.076     0.044    26.927     8.508
    11   6 C        3.035    -0.051    29.232     8.868
    12   6 C        3.036    -0.043    29.021     8.836
    13   9 F        0.722    -0.369    13.147     4.282
    14   9 F        0.722    -0.369    13.147     4.282
    15   1 H        0.926     0.072     2.058     2.244
    16   1 H        0.926     0.051     2.313     2.378
    17   1 H        0.926     0.050     2.316     2.380
    18   1 H        0.926     0.073     2.050     2.239
    19   1 H        0.926     0.072     2.058     2.244
    20   1 H        0.926     0.051     2.313     2.378
    21   1 H        0.926     0.050     2.316     2.380

Wiberg/Mayer (AO) data.
largest (>0.10) Wiberg bond orders for each atom

     #   Z sym  total        # sym  WBO       # sym  WBO       # sym  WBO
 ---------------------------------------------------------------------------
     1   5 B    3.388 --    13 F    0.874    14 F    0.874     9 N    0.794
                             2 N    0.794
     2   7 N    3.615 --     3 C    1.416     6 C    1.150     1 B    0.794
     3   6 C    3.930 --     2 N    1.416     4 C    1.329    15 H    0.966
     4   6 C    3.961 --     5 C    1.535     3 C    1.329    16 H    0.973
     5   6 C    3.954 --     4 C    1.535     6 C    1.248    17 H    0.972
     6   6 C    3.964 --     7 C    1.372     5 C    1.248     2 N    1.150
     7   6 C    3.986 --     6 C    1.372     8 C    1.372    18 H    0.962
     8   6 C    3.964 --     7 C    1.372    12 C    1.248     9 N    1.150
     9   7 N    3.615 --    10 C    1.416     8 C    1.150     1 B    0.794
    10   6 C    3.930 --     9 N    1.416    11 C    1.329    19 H    0.966
    11   6 C    3.961 --    12 C    1.535    10 C    1.329    20 H    0.973
    12   6 C    3.954 --    11 C    1.535     8 C    1.248    21 H    0.972
    13   9 F    0.973 --     1 B    0.874
    14   9 F    0.973 --     1 B    0.874
    15   1 H    0.994 --     3 C    0.966
    16   1 H    0.997 --     4 C    0.973
    17   1 H    0.997 --     5 C    0.972
    18   1 H    0.994 --     7 C    0.962
    19   1 H    0.994 --    10 C    0.966
    20   1 H    0.997 --    11 C    0.973
    21   1 H    0.997 --    12 C    0.972
 ---------------------------------------------------------------------------

molecular dipole:
                 x           y           z       tot (Debye)
 q only:        0.000       1.887       0.001
   full:        0.000       1.976       0.001       5.023

           -------------------------------------------------
          | TOTAL ENERGY              -39.530635246305 Eh   |
          | GRADIENT NORM               0.000071044093 Eh/α |
          | HOMO-LUMO GAP               1.790733269528 eV   |
           -------------------------------------------------

 * finished run on 2024/02/25 at 19:18:26.720
