============================== echo of input deck ==============================
# echo input file to output
echo
title "Transplatin"
memory total 4 gb
scratch_dir /tmp

# Charge of the system
charge 0

# XYZ coordinates in Angstrom units
# Automatic symmetry detection enabled (default tol 0.01). Disable with noautosym.
geometry units angstroms autosym 0.1
 Pt                 0.00000000    0.00000000    0.00000000
 Cl                 2.27999997   -0.00036653    0.00000000
 Cl                -2.27999997    0.00036653    0.00000000
 N                 -0.00031991   -1.98999997    0.00000000
 H                  0.46944690   -2.32340883   -0.81740913
 H                  0.46944690   -2.32340883    0.81740913
 N                  0.00031991    1.98999997    0.00000000
 H                 -0.46944690    2.32340883   -0.81740913
 H                 -0.46944690    2.32340883    0.81740913
 H                  0.94318252    2.32318174    0.00000000
 H                 -0.94318252   -2.32318174    0.00000000
end

dft
  # Exchange-correlation functional
  xc pbe0
  # Semidirect SCF. Cache integrals in memory, but do not use disk
  # 130 megawords is ~1000 megabytes for 64-bit machines
  semidirect memsize 130000000 filesize 0
  # For completely direct SCF without caching, use
  #direct

  # Spin multiplicity 2S + 1, where S = 0, 1/2, 1, 3/2, ...
  mult 1
  # For open-shell singlet calculation, add
  #odft

  # Reduce output during geometry optimization
  noprint "final vectors analysis"

  # Increase the number of SCF iterations
  iterations 100
end

# Basis set definitions
basis spherical
  * library def2-tzvp
end
ecp
  Pt library def2-ecp
end

# Options for the geometry optimizer
driver
  # Max 100 optimization steps
  maxiter 100
  # Print XYZ coordinates of each step
  xyz
end

# Optimize geometry
task dft optimize

================================================================================

         Total DFT energy =    -1152.661773489076
@ Step       Energy      Delta E   Gmax     Grms     Xrms     Xmax   Walltime
@ ---- ---------------- -------- -------- -------- -------- -------- --------
@    0   -1152.66177349  0.0D+00  0.02023  0.00642  0.00000  0.00000     41.6
         Total DFT energy =    -1152.664807772642
         Total DFT energy =  -1152.664807772642
@    1   -1152.66480777 -3.0D-03  0.00607  0.00199  0.04118  0.08873     76.3
         Total DFT energy =    -1152.665195297193
         Total DFT energy =    -1152.665221138611
@    2   -1152.66522114 -4.1D-04  0.00097  0.00025  0.01888  0.04163    121.5
         Total DFT energy =    -1152.665237722804
         Total DFT energy =    -1152.665244831516
@    3   -1152.66524483 -2.4D-05  0.00028  0.00011  0.00504  0.01460    160.4
         Total DFT energy =    -1152.665248298119
         Total DFT energy =  -1152.665248298119
@    4   -1152.66524830 -3.5D-06  0.00014  0.00004  0.00250  0.00772    190.2
         Total DFT energy =    -1152.665249028487
         Total DFT energy =  -1152.665249028487
@    5   -1152.66524903 -7.3D-07  0.00010  0.00003  0.00124  0.00403    218.6
         Total DFT energy =    -1152.665248436883
         Total DFT energy =  -1152.665248436883
@    6   -1152.66524844  5.9D-07  0.00005  0.00001  0.00136  0.00433    248.2
         Total DFT energy =    -1152.665249708836

     Multipole analysis of the density
     ---------------------------------

     L   x y z        total         alpha         beta         nuclear
     -   - - -        -----         -----         ----         -------
     0   0 0 0      0.000000    -36.000000    -36.000000     72.000000

     1   1 0 0     -0.000000     -0.000000     -0.000000     -0.000000
     1   0 1 0      0.000000      0.000000      0.000000      0.000000
     1   0 0 1      0.000000      0.000000      0.000000      0.000000

     2   2 0 0    -28.016049   -178.502228   -178.502228    328.988407
     2   1 1 0      0.445641      5.041911      5.041911     -9.638182
     2   1 0 1      0.000000      0.000000      0.000000      0.000000
     2   0 2 0    -60.293253   -356.466963   -356.466963    652.640673
     2   0 1 1     -0.000000     -0.000000     -0.000000      0.000000

         Total DFT energy =  -1152.665249708836
@    7   -1152.66524971 -1.3D-06  0.00001  0.00000  0.00031  0.00069    277.5
@    7   -1152.66524971 -1.3D-06  0.00001  0.00000  0.00031  0.00069    277.5

 Output coordinates in angstroms (scale by  1.889725989 to convert to a.u.)

  No.       Tag          Charge          X              Y              Z
 ---- ---------------- ---------- -------------- -------------- --------------
    1 Pt                  78.0000     0.00000000     0.00000000     0.00000000
    2 Cl                  17.0000     0.03272759    -2.30077142     0.00000000
    3 Cl                  17.0000    -0.03272759     2.30077142     0.00000000
    4 N                    7.0000    -2.03616174     0.00385688     0.00000000
    5 H                    1.0000    -2.39290181    -0.47464663    -0.82120253
    6 H                    1.0000    -2.39290181    -0.47464663     0.82120253
    7 N                    7.0000     2.03616174    -0.00385688     0.00000000
    8 H                    1.0000     2.39290181     0.47464663    -0.82120253
    9 H                    1.0000     2.39290181     0.47464663     0.82120253
   10 H                    1.0000     2.36034444    -0.96850193     0.00000000
   11 H                    1.0000    -2.36034444     0.96850193     0.00000000

 Total times  cpu:      457.4s     wall:      277.5s
